
#(C) 2022 by FIZ Karlsruhe - Leibniz Institute for Information Infrastructure.  All rights reserved.
data_34476-ICSD
_database_code_ICSD 34476
_audit_creation_date 1980-01-01
_audit_update_record 1984-11-02
_chemical_name_common 'Gallium nitride'
_chemical_formula_structural 'Ga N'
_chemical_formula_sum 'Ga1 N1'
_chemical_name_structure_type Wurtzite#ZnS(2H)
_exptl_crystal_density_diffrn 6.08
_citation_title 'Crystal structure refinement of Al N and Ga N'
loop_
_citation_id
_citation_journal_full
_citation_year
_citation_journal_volume
_citation_page_first
_citation_page_last
_citation_journal_id_ASTM
primary 'Solid State Communications' 1977 23 815 819 SSCOA4
loop_
_citation_author_citation_id
_citation_author_name
primary 'Schulz, H.'
primary 'Thiemann, K.H.'
_cell_length_a 3.190(1)
_cell_length_b 3.190(1)
_cell_length_c 5.189(1)
_cell_angle_alpha 90.
_cell_angle_beta 90.
_cell_angle_gamma 120.
_cell_volume 45.73
_cell_formula_units_Z 2
_space_group_name_H-M_alt 'P 63 m c'
_space_group_IT_number 186
loop_
_space_group_symop_id
_space_group_symop_operation_xyz
1 '-x, -x+y, z+1/2'
2 'x-y, -y, z+1/2'
3 'y, x, z+1/2'
4 'x-y, x, z+1/2'
5 'y, -x+y, z+1/2'
6 '-x, -y, z+1/2'
7 'x, x-y, z'
8 '-x+y, y, z'
9 '-y, -x, z'
10 '-x+y, -x, z'
11 '-y, x-y, z'
12 'x, y, z'
loop_
_atom_type_symbol
_atom_type_oxidation_number
Ga3+ 3
N3- -3
loop_
_atom_site_label
_atom_site_type_symbol
_atom_site_symmetry_multiplicity
_atom_site_Wyckoff_symbol
_atom_site_fract_x
_atom_site_fract_y
_atom_site_fract_z
_atom_site_B_iso_or_equiv
_atom_site_occupancy
Ga1 Ga3+ 2 b -.3333 -.6667 0 . 1.
N1 N3- 2 b -.3333 -.6667 0.377(1) . 1.
loop_
_atom_site_aniso_label
_atom_site_aniso_type_symbol
_atom_site_aniso_U_11
_atom_site_aniso_U_22
_atom_site_aniso_U_33
_atom_site_aniso_U_12
_atom_site_aniso_U_13
_atom_site_aniso_U_23
Ga1 Ga3+ 0.0052(2) 0.0052(2) 0.0027(2) 0.0026(1) 0 0
N1 N3- 0.0070(8) 0.0070(8) 0.0024(9) 0.0035(4) 0 0
#End of TTdata_34476-ICSD
